13
ntypeA 10 energy -48.6156136322 rcut 2.5 epsAA 1. sigAA 1. epsBB 0.5  sigBB 0.88  epsAB 1.5  sigAB 0.8
LA 1.24342609645 1.23801614964 1.45244601846
LA 1.54705873394 -0.403679545541 1.08622723447
LA 0.515778716226 -0.0239372880257 0.929025197905
LA 1.04140082421 0.241886695439 1.84618383498
LA -0.307544717649 0.713226563322 0.942468435734
LA 1.30210329252 0.121573963563 0.157672262695
LA 0.214664735372 1.61889690366 1.31813573836
LA 1.81592085872 1.01267158584 0.527274249323
LA 2.06001024046 0.485922757848 1.4552068885
LA 0.702832288765 0.981025991721 0.534817514968
LA 2.08286438437 0.152336117975 0.614255316989
LA 1.27757950097 0.457317267256 0.998456233073
LA 0.473319917047 0.762648179788 1.38036530142
